-- Этот файл был сгенерирован тНавигатор v23.1-3979-g6d70bbb6d3f7.
-- Copyright (C) Рок Флоу Динамикс 2005-2023.
-- Все права защищены.


SPECGRID
 10 10 10 /

NOECHO

COORD
    2*0   2000    2*0   2020    100      0   2000    100      0   2020    200      0   2000    200      0   2020    300      0
   2000    300      0   2020    400      0   2000    400      0   2020    500      0   2000    500      0   2020    600      0
   2000    600      0   2020    700      0   2000    700      0   2020    800      0   2000    800      0   2020    900      0
   2000    900      0   2020   1000      0   2000   1000      0   2020      0    100   2000      0    100   2020  2*100   2000
  2*100   2020    200    100   2000    200    100   2020    300    100   2000    300    100   2020    400    100   2000    400
    100   2020    500    100   2000    500    100   2020    600    100   2000    600    100   2020    700    100   2000    700
    100   2020    800    100   2000    800    100   2020    900    100   2000    900    100   2020   1000    100   2000   1000
    100   2020      0    200   2000      0    200   2020    100    200   2000    100    200   2020  2*200   2000  2*200   2020
    300    200   2000    300    200   2020    400    200   2000    400    200   2020    500    200   2000    500    200   2020
    600    200   2000    600    200   2020    700    200   2000    700    200   2020    800    200   2000    800    200   2020
    900    200   2000    900    200   2020   1000    200   2000   1000    200   2020      0    300   2000      0    300   2020
    100    300   2000    100    300   2020    200    300   2000    200    300   2020  2*300   2000  2*300   2020    400    300
   2000    400    300   2020    500    300   2000    500    300   2020    600    300   2000    600    300   2020    700    300
   2000    700    300   2020    800    300   2000    800    300   2020    900    300   2000    900    300   2020   1000    300
   2000   1000    300   2020      0    400   2000      0    400   2020    100    400   2000    100    400   2020    200    400
   2000    200    400   2020    300    400   2000    300    400   2020  2*400   2000  2*400   2020    500    400   2000    500
    400   2020    600    400   2000    600    400   2020    700    400   2000    700    400   2020    800    400   2000    800
    400   2020    900    400   2000    900    400   2020   1000    400   2000   1000    400   2020      0    500   2000      0
    500   2020    100    500   2000    100    500   2020    200    500   2000    200    500   2020    300    500   2000    300
    500   2020    400    500   2000    400    500   2020  2*500   2000  2*500   2020    600    500   2000    600    500   2020
    700    500   2000    700    500   2020    800    500   2000    800    500   2020    900    500   2000    900    500   2020
   1000    500   2000   1000    500   2020      0    600   2000      0    600   2020    100    600   2000    100    600   2020
    200    600   2000    200    600   2020    300    600   2000    300    600   2020    400    600   2000    400    600   2020
    500    600   2000    500    600   2020  2*600   2000  2*600   2020    700    600   2000    700    600   2020    800    600
   2000    800    600   2020    900    600   2000    900    600   2020   1000    600   2000   1000    600   2020      0    700
   2000      0    700   2020    100    700   2000    100    700   2020    200    700   2000    200    700   2020    300    700
   2000    300    700   2020    400    700   2000    400    700   2020    500    700   2000    500    700   2020    600    700
   2000    600    700   2020  2*700   2000  2*700   2020    800    700   2000    800    700   2020    900    700   2000    900
    700   2020   1000    700   2000   1000    700   2020      0    800   2000      0    800   2020    100    800   2000    100
    800   2020    200    800   2000    200    800   2020    300    800   2000    300    800   2020    400    800   2000    400
    800   2020    500    800   2000    500    800   2020    600    800   2000    600    800   2020    700    800   2000    700
    800   2020  2*800   2000  2*800   2020    900    800   2000    900    800   2020   1000    800   2000   1000    800   2020
      0    900   2000      0    900   2020    100    900   2000    100    900   2020    200    900   2000    200    900   2020
    300    900   2000    300    900   2020    400    900   2000    400    900   2020    500    900   2000    500    900   2020
    600    900   2000    600    900   2020    700    900   2000    700    900   2020    800    900   2000    800    900   2020
  2*900   2000  2*900   2020   1000    900   2000   1000    900   2020      0   1000   2000      0   1000   2020    100   1000
   2000    100   1000   2020    200   1000   2000    200   1000   2020    300   1000   2000    300   1000   2020    400   1000
   2000    400   1000   2020    500   1000   2000    500   1000   2020    600   1000   2000    600   1000   2020    700   1000
   2000    700   1000   2020    800   1000   2000    800   1000   2020    900   1000   2000    900   1000   2020 2*1000   2000
 2*1000   2020 /

NOECHO

ZCORN
 400*2000 800*2002 800*2004 800*2006 800*2008 800*2010 800*2012 800*2014 800*2016 800*2018 400*2020 /

INIT


NOECHO

NTG
 1000*1 /

NOECHO

PERMX
 1000*10 /

NOECHO

PERMY
 1000*10 /

NOECHO

PERMZ
 1000*1 /

NOECHO

PORO
 1000*0.1 /
